Molybdenum disulfide (MoS 2 ) attracts attention as a high efficient and low cost photocatalyst for hydrogen production, but suffers from low conductance and high recombination rate of photo-generated charge carriers. In this work, we investigate the MoS 2 heterostructures with graphene variants (GVs), including graphene, graphene oxide, and their boron-and nitrogen-doped variants, by using first-principles calculations. Systematic comparison between graphene and graphene oxide composites is performed, and contrary effect of B and N doping on interface function and hydrogen evolution is clarified. We find that upon the formation of the interfaces some amount of electronic charge transfers from the GV side to the MoS 2 layer, inducing the creation of interface dipole and the reduction of work function, which is more pronounced in the graphene oxide composites. Moreover, our results reveal that N doping enhances the interface functions by forming donor-type interface states, whereas B doping reduces those functions by forming acceptor-type interface states. However, the B-doped systems exhibit lower Gibbs free energy difference for hydrogen adsorption on GV side than the N-doped systems, which deserves much consideration in the design of new functional photocatalysts. Hydrogen production by using water and sunlight via photocatalysis draws considerable attention as a desirable solution to global environment and energy challenges. In maximizing the efficiency of this solar-to-chemical energy conversion, photocatalysts are used to facilitate the hydrogen evolution reaction (HER) Among these, two dimensional (2D) layered transition metal dichalcogenides are recognized to be very promising candidates for HER photocatalysts In this contribution, we demonstrated that the GV monolayer in the MoS 2 /GV bilayer heterostructures can work as an efficient photocatalyst for H 2 evolution with the electrons photogenerated and transferred from the MoS 2 monolayer. We tested graphene, reduced graphene oxide and their variants with ptype boron and n-type nitrogen doping, denoted as BG, CG, NG, BGO, CGO and NGO hereafter. In fact, graphene itself cannot show photocatalytic activity due to its zero band gap, but such doping can give the finite band gap and higher electrical conductivity, resulting in the high PEC activity Density functional theory calculations were carried out using the pseudopotential (PP) pseudoatomic orbital (PAO) basis set code SIESTA 4.1 The plane-wave cutoff energy for grid was set to 300 Ry and Monkhorst-Pack special k-points of 4 × 6 × 6 and 6 × 8 × 1 were used for bulk and slab models respectively. For more accurate calculations of electronic density of states (DOS), we increased the k-points to 12 × 16 × 1 for the interface models. All atoms were relaxed until the atomic forces converged to 0.02 eV/Å. To eliminate the artificial electrostatic effects for asymmetric slabs, we took account of the slab dipole correction. We computed the local DOS defined as the total DOS weighted with the electron density in the local region We first explored the bonding nature of MoS 2 /GV (GV = BG, CG, NG, BGO, CGO, NGO) bilayer heterostructures by calculating the geometric structures. For all DFT calculations, we used the DFT-D2 vdW method For the graphene composite, B and N doping were found to enlarge and contract the intralayer bond length between the dopant atom and its neighboring C atoms (d D-C ) from 1.41 Å to 1.47 and 1.39 Å respectively. Meanwhile, they acted inversely for the interlayer distance between the dopant atom and the average position of the topmost S atoms (d D-S ) as from 2.97 to 2.79 and 2.99 Å. Another interlayer distance between the average position of C atoms and the topmost S atoms (d G-S ) was found to slightly increase from 3.086 Å for CG to 3.088 Å for BG and decrease to 3.084 Å for NG composite. These indicate that B doping reduces the intralayer ππ and interlayer vdW bondings, whereas N doping enhances these bondings. For the cases of GO composites, similar change tendency for the intralayer bond length d D-C was observed as from 1.41 Å for CGO to 1.50 Å for BGO and 1.40 Å for NGO, but the interlayer bonding distance d G-S increased from 3.046 Å to 3.059 Å for both the B-and N-doped composites. To estimate the binding strength, we calculated the interface binding energy per area, , and the interlayer binding energy per area, where A is the surface area and d eq is the equilibrium interlayer distance. As listed in Table We show the spatial electron density difference plots at the same isosurface value of 0.0006 e/Å 3 in Figure The electron redistribution upon the interface formation generates an interface dipole, directing from the MoS 2 layer to the GV layer. Table where "MoS 2 /GV", "MoS 2 " and "GV" indicate the interface system, pristine MoS 2 layer and graphene variant, respectively, and "CP" stands for counterpoise correction for BSSE. , where d eq is the equilibrium interlayer distance and d ∞ is approximated to be 30 Å. The transferred charge (∆q = ∆ ρ(z)dz), interface dipole (∆μ = -z∆ ρ(z)dz) and work function change (φ = eμ/ε 0 A) are divided into two components: one from the MoS 2 substrate and another from the GV layer. The work function of the pristine MoS 2 monolayer is calculated to be 4.04 eV, in good agreement with the experimental data (4.15 eV) To further understand how photo-generated electrons can transfer through the interfaces, we calculated the electronic band structures, partial density of states (PDOS) and local density of states (LDOS), as shown in Figure As MoS 2 captures photons, the valence band electrons are excited to the conduction band, generating the conducting electron and hole, which transfer oppositely along the conduction band and valence band, respectively (see Figure Finally, based on the finding that photo-generated electrons transfer to the GV side, we studied hydrogen adsorption in the GV side of these heterostructures. Here, two hydrogen atoms were assumed to be adsorbed on the top of C atoms for the graphene composites, while on the top of O atoms for the GO composites, with different possible sites (see Figure Gibbs free energy difference (∆G) for the hydrogen adsorption in MoS 2 /CG, which should be close to zero for the best PEC activity, was calculated to be 0.99 eV, being lower than the previous DFT value of 1.45 eV obtained by adsorbing one H atom In summary, we have performed the first-principles calculations of MoS 2 heterostructures with graphene variants such as graphene, graphene oxide and their B-and N-doped derivatives, aiming at clarifying the effect of such doping on interface function and hydrogen evolution. By using the constructed supercell models for the MoS 2 /GV bilayer heterostructures, we have elucidated their binding characteristics, charge redistribution, interface dipole, work function change, electronic structure and hydrogen adsorption energy, paying attention to comparison between graphene and graphene oxide composites and contrary effect of B and N doping. It was found that substitution of one carbon atom in graphene and graphene oxide with boron or nitrogen atom substantially modifies the binding nature in the MoS 2 /GV bilayer. Upon the formation of the bilayer interface, some amount of electronic charge has been found to move from the GV layer to the MoS 2 layer, resulting in the creation of interface dipole and the decrease of work function, being more pronounced in the graphene oxide composites. Our calculations have shown that N doping enhanced the interface functions with the donor-type interface states but B doping reduces those with the acceptor-type states. Furthermore, the calculated electronic structures indicated that the interface dipole could facilitate the separation of electrons and holes photogenerated in the MoS 2 layer and caused the transfer of the electrons to the GV layer for hydrogen evolution, which is more promoted by N doping compared to B doping. We have calculated the hydrogen adsorption energies, revealing that the hydrogen evolution occurred more readily on the B-doped GV side than on the N-doped ones. We believe this work deserves much consideration in the design of innovative functional photocatalysts for hydrogen evolution.